# vtk DataFile Version 3.0
vtk output
ASCII
DATASET STRUCTURED_POINTS
DIMENSIONS 50 50 1
SPACING 1 1 1
ORIGIN 0 0 0
POINT_DATA 2500
SCALARS Image float 1
LOOKUP_TABLE default
0.8718100506513182 0.8661879504297677 0.879521301209783 0.9098790847890452 0.9538800305723939 1.00813396503804 1.067757738806199 1.1240732524710217 1.1649772827860052 1.1794457787461061 1.1637553899960202 1.1246741170069887 1.0764261656978849 1.032786992201177 0.9996338971340177 0.973288467690975 0.9457531231614451 0.9126809323870689 0.8778261321676148 0.8505526422332184 0.8385259391037054 0.841550206645924 0.8515664164352059 0.8588862251363257 0.8597975248140795 0.8596746213997295 0.8693475208703647 0.8976918295479461 0.9460044521247984 1.0078386389153444 1.0734330718748184 1.1345669083044418 1.1861915272490444 1.22471320157935 1.2459827744448244 1.2460329584421896 1.2245308522407057 1.1877310769401639 1.147494044915615 1.116065726180406 1.1000905640514325 1.0983075234736208 1.1044914311071643 1.1128286367328255 1.120909079925261 1.1278069351887663 1.1294744471305955 1.1167003396059885 1.0792286127348822 1.0142879704196512 
0.9253136279400639 0.9144471207166411 0.9113382766553845 0.913419605928259 0.9211835754578889 0.9380528928810071 0.9661788121064561 1.0019210174047095 1.0354883401933168 1.055965867475986 1.0583139751220572 1.0468442140252339 1.0321134826353007 1.023331321471137 1.0220602162903365 1.022084713647875 1.0154359577768466 0.9996122805713497 0.9800890709191041 0.9660788563554731 0.9630443004281046 0.9681464848921911 0.9724343580546455 0.9681049376423827 0.9550685198996283 0.9416420598525769 0.9388998057823086 0.953135065258633 0.9820799591311085 1.0172301259425227 1.0497622446098722 1.0751554016153697 1.0934602647571094 1.1062771079310074 1.1141531214610103 1.1170544959538056 1.117010758741952 1.1194467988948504 1.1306738801123286 1.1527652288227608 1.18013174996864 1.2014440819012766 1.2062911150218516 1.1916486056893607 1.1627893783646388 1.127529143646749 1.0883973582454993 1.0396208351754073 0.9723953513631349 0.8851705611142535 
0.8646485973538024 0.8672051293817696 0.8753984763217185 0.8830900518208231 0.8902574423104168 0.9021200575685685 0.9235839725237479 0.9538500160189517 0.9859563421858257 1.0118663954965126 1.0289235105462535 1.0421496266902905 1.0602034949043995 1.0881154699988778 1.1227334880408912 1.1547055261673655 1.1754567040922597 1.1834404772577025 1.1844772337228613 1.1858669846945542 1.1891692820228386 1.187755863110275 1.171416752462346 1.1345590322224954 1.0815771329212047 1.025182323548171 0.978994032430474 0.9500069129577816 0.9362650766291135 0.9306778944240215 0.9272040364094851 0.9244374108805306 0.9245952614972698 0.9301161696417288 0.9417335657596133 0.9597038273640444 0.9861240855822337 1.02470537385102 1.076690052395168 1.1358357291545798 1.187502975839011 1.214435624305458 1.2063662173172403 1.1666393849515047 1.1103398999269212 1.0544936170961872 1.0071881102252758 0.9637828882077013 0.9133128242891366 0.850416073733749 
0.8638649332617598 0.8797991346590665 0.9013512301872945 0.9209687872593907 0.9379634443402508 0.9569116439303589 0.9818571206550801 1.0116207008295623 1.040403975726596 1.0631264858178182 1.0806497584591745 1.0999545179423744 1.1286198524469269 1.1679975456284504 1.2109205103762333 1.2462436450772152 1.266833219494964 1.2745525721972177 1.2780148003894545 1.284684281774092 1.2935764815495152 1.2944761687525448 1.2744969226574645 1.2270679070313817 1.1566675621472298 1.0761319339823832 0.999144810868811 0.9338419367114079 0.8818329576765828 0.8420677268158708 0.8151462589583052 0.8040342983116938 0.8110421670096841 0.8346185386460682 0.8695882368933306 0.9108998820934398 0.9571401079903408 1.0097660026477115 1.0678399566291636 1.1227655428692471 1.158700188389532 1.1603283077202862 1.1233975553908162 1.0600919291839155 0.9941689114185812 0.9481097071549215 0.9307561419220265 0.9340036400579663 0.9407298343173214 0.9380280456672547 
0.9761909985341606 0.98852007492695 1.00049296735444 1.0072628651306794 1.010561713122066 1.0156975967210136 1.0258093417008427 1.03873216634878 1.0494033292568865 1.0556401385225882 1.061833348731097 1.0766164341949767 1.1057642859890664 1.146045695046816 1.1855438936870235 1.2109753150107283 1.2167606133652653 1.2088386109124378 1.2000694945659927 1.2005490391983293 1.210068360781459 1.2181920901918128 1.2114921774923515 1.1821919704521955 1.1319857230968084 1.0691867049220571 1.002729125389371 0.9384262761229821 0.8799872216989458 0.8324898648111128 0.8037003252605474 0.8008529510730842 0.8251626050227705 0.869085913958862 0.9194856953296219 0.9648218421152988 1.0007151895831652 1.0292577043769076 1.0527143656492401 1.0673777285592214 1.0637208124604711 1.0339104640573704 0.9811709648431854 0.9229754139578594 0.8840654200682633 0.8830093236383646 0.921360603802499 0.9830856792540517 1.0446825964849134 1.0888406178243155 
1.0751781489210206 1.0724597064061594 1.0634629269809717 1.0476561932886586 1.030214158682498 1.0172702081650244 1.0104589000978057 1.005852052934898 0.9985533581475288 0.9890007708581829 0.9850434960237013 0.9970770013271177 1.029439076996183 1.0749200733787172 1.1173501572772249 1.1410759436586522 1.140625060619733 1.1234912313725214 1.1041320237044685 1.0938536116689757 1.0940423727009345 1.0971303510131871 1.0934682037614105 1.0780650910093148 1.0521877171288667 1.0198201321512563 0.9834271713382545 0.9435078510110066 0.9022440237710457 0.8670901885031032 0.8496077390570528 0.8589187109583651 0.8943432463444522 0.9433999946519382 0.9876375866759313 1.0125914762496488 1.0146929332611043 1.0002735372401448 0.9781596933205106 0.9524937171513627 0.9219826210404808 0.8860175143680726 0.8518160886466722 0.835304937106291 0.8533193229247057 0.9120297930972373 1.000282483719248 1.093496832406333 1.1661326236405016 1.2044776446680285 
1.0633165539907778 1.0520946208904753 1.0368212226938025 1.020243721846804 1.0088297212364126 1.0066952202500794 1.011097448217394 1.0139720063512117 1.008890720204217 0.9978206770773828 0.9915949319136443 1.0027844003467938 1.035932717349449 1.0826783660265809 1.125845778366328 1.149759656745841 1.149280267813718 1.1311857065755984 1.1075671074845048 1.0869182036882445 1.069795569589719 1.0515871657383244 1.0289102004238808 1.0035495541850452 0.9806514357524614 0.9634117525383992 0.9497692356646344 0.9347187406501216 0.9164900194743334 0.9008172197338401 0.898601558042471 0.9177790781361639 0.9555216757513082 0.9973466942519673 1.024616799264255 1.0253187980479894 1.000357444380487 0.9611469392290367 0.9211435983576813 0.8884718097559829 0.8652480103257127 0.8529953879014496 0.8580058918097275 0.8904384363997949 0.9565117077995269 1.0496957138068936 1.1487091595944725 1.2255354411706851 1.2591013479612725 1.2457581049437798 
0.975230776956467 0.9686597100841147 0.9645406844274976 0.9673028212361929 0.9823262546387395 1.0093782810023186 1.0398231679332883 1.0609837507584459 1.0650604453312011 1.0557154745003479 1.0466436656463685 1.0525015307502246 1.0786590357840375 1.1173667881659317 1.1530628026822667 1.1725507733570046 1.1722886549746625 1.157767646538212 1.1365430301384938 1.1114094439708053 1.0795071729232748 1.0376165286164605 0.9883898423116566 0.9415037069066843 0.908270866381101 0.8941208516862842 0.8954055124371701 0.9033768470745169 0.9119878054952315 0.9227418070500173 0.9422128348877329 0.9741496817944166 1.0129401300792882 1.044427930534803 1.0541619642303985 1.0369916826149272 1.0006677777362734 0.9608462519243733 0.9316922814942813 0.9194810287453995 0.9235856533549165 0.9426689816138902 0.9794099863772763 1.038569444745449 1.1194098867684283 1.2091186242383412 1.2840085226363358 1.3195304376402885 1.3030992822785359 1.2411424537031084 
0.9083590490552812 0.9070544408594128 0.910356143632899 0.924065138915382 0.9523324093213468 0.9912618566255211 1.0282395950229626 1.04882078970865 1.046657607723493 1.0288473479455542 1.0120850409309863 1.0119612783136926 1.0331043048045796 1.0672349311500815 1.1000319442588105 1.120974981082208 1.1284647790452207 1.1269040473357999 1.119283253592868 1.1024021075773207 1.0692531913521113 1.0166275748535383 0.9512343796148381 0.8886301987171888 0.8451792518649596 0.8290821823792344 0.8372945226611167 0.860260936768924 0.8899887952343147 0.9245010072887282 0.9652060902943504 1.0101508538483734 1.0499189115413885 1.070791799670805 1.0634764220314188 1.0306046181526625 0.9867411480734514 0.9504653848576308 0.9343870486210141 0.9404524771613942 0.96335520735184 0.998129381674058 1.0447629721879537 1.1056335028492366 1.1781803062785985 1.2498123478539775 1.3006312202412396 1.3132195921391279 1.282765709948908 1.2201634662531198 
0.9129043642980663 0.9029248954501645 0.8937348738265743 0.8944157761354913 0.9102254137528683 0.9364309210893965 0.9595913864045599 0.9663484199598922 0.9534799345017153 0.9313760990435085 0.9178200080202813 0.9263982840935941 0.9580556697130203 1.0018074880909476 1.0434250206879134 1.0748387701263211 1.096939656886667 1.1143087307487582 1.1272239694693376 1.128413084829475 1.107772079495723 1.0613163766815539 0.9968537253991618 0.9314132708706153 0.8821445898301865 0.8575917005138514 0.8556613551227368 0.8688761427086785 0.8915790631361479 0.9226467474586554 0.9617839188972018 1.003576705767487 1.0357937553216692 1.0448527411325221 1.0249374323311153 0.9835228648839736 0.938387510781652 0.9077844523843402 0.9008620469373583 0.9151417204867526 0.9421045127914116 0.9755124434525309 1.0153241778169673 1.064319352559325 1.1210950245910714 1.176316107135033 1.2162575213140192 1.2312452530009859 1.2221423366546693 1.199412909345642 
0.94886628358558 0.9197708537446828 0.8854764192899426 0.8603890055512479 0.8532961308142963 0.8611662385369786 0.8718348051907574 0.8739228510122615 0.8664080466925701 0.8602528494477908 0.8706168017214262 0.9056077789825365 0.9602553604547677 1.0201851258658425 1.071749641677955 1.1104065084645733 1.1409036428166084 1.1697606462982828 1.1968439683399967 1.2133580349298034 1.2080202202675205 1.176291566631428 1.1250435686019011 1.0689109904349772 1.021426219242275 0.988070275945166 0.966334728079396 0.9517031989119115 0.9435285943943171 0.9453024837164826 0.959212106744024 0.9803550207357095 0.9966705822506319 0.9958426885184206 0.9742117853969887 0.9404960802877214 0.910930258209008 0.8992157557468669 0.9087977241060782 0.9329980818539786 0.9621207909324254 0.9911838453603361 1.0219412410535489 1.0581763023357587 1.0992074381191625 1.1379911385624548 1.1659178308085083 1.1801501039824003 1.1866772111777006 1.1956531871518878 
0.9601932434923101 0.919299048298438 0.8682429785033724 0.8250898328854888 0.8012478073569764 0.7955180087345907 0.7978036855217177 0.799315071498885 0.8009430032436401 0.8130016009260559 0.8465858074490563 0.9036350774366615 0.9738491867880323 1.0410145686836227 1.0936678747054027 1.1315978595593892 1.163214485911358 1.1963077167645113 1.2299825797178479 1.2543406183711636 1.2579458045185832 1.236775243507341 1.1974092175736994 1.1522431514801559 1.111109844488386 1.0763194921476964 1.0447291738132332 1.014168231165271 0.9878696642856326 0.9726122889772977 0.9721653065581667 0.9821228356274678 0.9913181237719817 0.9894088950130142 0.9747359443902139 0.9559662794519047 0.9459693884021428 0.9527253050910497 0.9744552086196885 1.0025624657811856 1.0294317440529743 1.0542156566446088 1.0817565250397023 1.115966568974263 1.1539570031191722 1.1866110804715988 1.205570436530141 1.2106672616334682 1.2109242710961925 1.217395855498245 
0.9568155310068359 0.920136218821031 0.8705214187955055 0.825163049772841 0.7944085848521123 0.7770862324624366 0.7652874243404353 0.7541067055312127 0.7479229306622888 0.7578463765543144 0.7924289139244839 0.8494455684205234 0.915770479982147 0.9757387725865354 1.0213993241362427 1.0564913291377689 1.0910917085889396 1.1314363856523402 1.173214185289708 1.203646312483293 1.2104894865188511 1.1906892095003867 1.152084311042923 1.107497487282921 1.0666133241365507 1.03223535864394 1.0031231880314249 0.9796834911217989 0.9665211481376654 0.9691045242546549 0.987545298366763 1.013546845925151 1.0341321670517725 1.0398737409388463 1.0311587215666551 1.0173007073027156 1.0091235274224628 1.011087047749899 1.0194007496942044 1.027456049930448 1.0336027581450464 1.0442032139366257 1.0689012724183797 1.1118200778195848 1.1661763580397404 1.2172378726430133 1.2516644587670616 1.2658111719708458 1.2662147114611406 1.2618576626483289 
0.981687115855127 0.9547296579916704 0.9129977606241951 0.8710852724415004 0.8367496064479536 0.8082893461341067 0.7803958784006243 0.7528129759078218 0.7338853817879435 0.7355498826477638 0.7637533145824609 0.8124160877833113 0.8663794097961135 0.9114472850313098 0.9437191556282041 0.9708189645012483 1.0040567341061437 1.0477611075245914 1.0941652708247942 1.1276910057209808 1.1350835671895623 1.1136106434030837 1.0716575848520467 1.0224156524632941 0.9765129047797916 0.9392625610938327 0.9133098704699971 0.9024406385467569 0.9116363599043908 0.9425674870598011 0.9887265296050942 1.0356012405129995 1.0673470771758629 1.0756508555536834 1.0640043007186588 1.0438616397676581 1.0256397974250975 1.0118023825679618 0.9975981530108828 0.9786188659259347 0.9584929700160142 0.9497047059361301 0.9661360960720212 1.0128889913693242 1.0814493856677274 1.154139254833471 1.2143985634411827 1.254857753880719 1.2771976025168044 1.284758920125341 
1.0476091121227773 1.0246599541116583 0.9842565271981247 0.9405920810372875 0.900731052704889 0.8639421136538479 0.8281959981561013 0.7972821129351875 0.7815692600523082 0.7910824592015038 0.8265036467058907 0.8760075659303511 0.9214385433432755 0.9497592283863 0.9611947940558415 0.9678155400181552 0.9836235091148657 1.0136531632952543 1.050074774520144 1.0776277266181113 1.083646850671092 1.0651003911608465 1.0283281498584285 0.983367382750014 0.9385397081771053 0.8994430714712908 0.8715162332064693 0.8617016025284585 0.8757957067777916 0.9128122735834757 0.9616018216046148 1.004168991146436 1.02486782877109 1.0193188618215367 0.996265114737859 0.9706362512728274 0.9529269219084086 0.9429901166840455 0.9328692099697655 0.916034284339066 0.8952407136718367 0.882424602762174 0.8906205493710047 0.924421708557008 0.9766225041008827 1.0335106616904224 1.0841511015226375 1.1258703980974338 1.1615930402728822 1.1917853772897635 
1.1289265955612466 1.1113148242060489 1.0754581521459758 1.0353248318814747 0.9974146642567774 0.9617845337696778 0.9287899214059836 0.9045343417200101 0.8993088048035278 0.9196803484067331 0.9608997711680006 1.0067379932735607 1.0381700331581183 1.0451045606889773 1.0325538668331113 1.0166193151198968 1.013271124783164 1.0280796239799115 1.05384154111996 1.076710793076574 1.0852683812663213 1.0757621462359166 1.0509516417548905 1.0155721996115388 0.9735379968148872 0.9291605877924065 0.8898788877590539 0.8659437132357433 0.865249444553009 0.8866321779475148 0.9176463753184323 0.9402010406037682 0.9412460449431246 0.9210684178600543 0.8928470541433924 0.8734547872200975 0.8721647543488932 0.8855113529455909 0.9016965647916073 0.91049373457873 0.9105739412823245 0.908746480533572 0.9125194873049759 0.9228613759644962 0.9335681867705647 0.9377201934997771 0.935403987706505 0.9355469182063143 0.9495383694462468 0.9813124770552826 
1.1669602222725401 1.1695096050077851 1.1590650862263143 1.145010889216299 1.1295902793166444 1.1107324354580725 1.088844463139506 1.07062440500891 1.0657201717040627 1.078622880761818 1.1028653888353166 1.12326964766814 1.125587603663416 1.1066610649198176 1.077369833773035 1.0559384007949417 1.05638759597418 1.0803065744961684 1.1171612383660996 1.1517093815106212 1.1722363353656804 1.1739322440764195 1.1567365533286835 1.1217234284784356 1.0705011577544534 1.0081347939194303 0.9457119339404354 0.8981481043578602 0.8769232728489769 0.882603199435565 0.9034401520164462 0.9223036549982259 0.9276658503650609 0.9207526057818549 0.9135111636421488 0.918960710745804 0.9413053401413765 0.9731959692287742 1.0017170627024217 1.0177827057410564 1.0212498673554762 1.0180310767997462 1.0123952784508676 1.0016796428205232 0.9784443033917047 0.9385598790130483 0.8883361817838716 0.844129165728492 0.823717156615891 0.8353728619291378 
1.1263737578123147 1.1587755990774762 1.1845117557686882 1.2052986792034457 1.2176567039238837 1.2173199053208419 1.2053520416926107 1.1897381945068597 1.1802208102460665 1.1803589352263528 1.1837605886250937 1.1784278879333727 1.1565166554624948 1.122058951665823 1.09037106436231 1.0791367102382114 1.0974842684420107 1.1407180550793967 1.1938010701071913 1.2400959095006343 1.2685899572652237 1.2752088925297378 1.2593990801147374 1.2209495998747468 1.1608701444513014 1.0853737773136078 1.0081754324922665 0.9470924013246431 0.9158468889667621 0.916733440361184 0.9400400316937145 0.9712107074620606 1.0005925590925802 1.0283837388656962 1.0611415488515012 1.103005473695526 1.149085625499251 1.186676159284848 1.2034888900585465 1.196263963991828 1.1727213229739935 1.1452134147098771 1.121200869443024 1.0982552506930494 1.0675976081166119 1.0232509209934455 0.9693600386465353 0.9197195996766746 0.8897324882866189 0.8868558108428052 
1.0841764612211051 1.133792851725046 1.1739545144656491 1.2011740084028102 1.2106337741046036 1.201256408448954 1.1797860028440763 1.1589822392912783 1.1500364614935363 1.154751540880971 1.164029280451584 1.164604009578568 1.1493684462119793 1.1235015470117335 1.1016302127611481 1.0980948958752141 1.1175660774923537 1.1526838517130211 1.189704141421518 1.217080867960737 1.2303440902630869 1.23050423476486 1.2189372242233805 1.1943382339311324 1.1547997173178746 1.1028510001341758 1.048162413972429 1.0044259232396413 0.9821213455998399 0.982845542307526 0.9999801236931143 1.0252688355522712 1.0557594213731503 1.0950278783209353 1.1473379027627195 1.209562704874645 1.268086995737607 1.30429662821934 1.3053986038841943 1.2727351285490576 1.22126256247193 1.1703764041605993 1.1326642833583433 1.1084614929770171 1.089394750390399 1.0672873272809715 1.0412240505976522 1.0177715876122906 1.005147624878379 1.0066727922768863 
1.1431641077480887 1.182392422290582 1.2030924949386794 1.2006919131084288 1.1732068530091138 1.126366173858179 1.0751461885927958 1.038379027677569 1.0288530494863295 1.0457455017734036 1.0753044286996152 1.0998074276685474 1.1085717394006487 1.103238659313626 1.0940181512899845 1.0904925365399651 1.0944224707953722 1.099830358562193 1.0994466150504167 1.0915707387387183 1.081545867708255 1.0769650580521941 1.0810776469228924 1.0901352449327326 1.0967304607586303 1.0959127913708975 1.088633908073056 1.0797321734613758 1.0727445656591268 1.066747947647828 1.058518174045833 1.0481849396297107 1.0428112533074425 1.0534742601839968 1.0868271483972545 1.1373454544037447 1.1869438580998604 1.2135924928167148 1.2037490476784902 1.1602310376409903 1.100191710597898 1.0448446021441244 1.0081613582453297 0.9918254831931532 0.9885669295047264 0.9899167453818447 0.9920721523336611 0.9962791613108821 1.0051209638921195 1.0190366182858004 
1.2417930558754167 1.2482269655110885 1.236085333370883 1.2008876066081968 1.1418077079696327 1.067204524136968 0.9947812256643092 0.9443603934045692 0.9273693965895332 0.9404375237439353 0.9680090862685248 0.9923237080474732 1.0036717566224727 1.0038560618088652 1.00123278391249 1.0021514383397614 1.0059277602383445 1.0069983789113586 1.0017084609779938 0.9934483932221541 0.991531610472214 1.0046575656249264 1.0343317080650012 1.0734814879442187 1.1110365122598678 1.138397479809064 1.152621105940013 1.1545420539483287 1.1447579878614067 1.122163959864495 1.0869582672366527 1.0452548837022957 1.0100424383018143 0.9956757783103476 1.0086101654789805 1.0410705178329964 1.0731770908662837 1.083245092076313 1.059918014741695 1.0082283752658638 0.9458793422673729 0.892788594556285 0.8611329176951703 0.8518596203375787 0.8583298127353246 0.8728273768120551 0.8907676194964076 0.9106358867340798 0.9317269457362954 0.9530836804653242 
1.2278951874765633 1.1986281705929478 1.163042715757653 1.11601940365495 1.0544354363698651 0.983373625382818 0.9161585288464572 0.8672848917838829 0.8432605135679123 0.8384710776139084 0.8395135045391157 0.8348943051299432 0.8228269191415373 0.8114431163508871 0.8117388174584929 0.8291237332836205 0.8601286009533228 0.8962906053935118 0.9313695856920822 0.9656573342510505 1.0039936364882809 1.0495741785176647 1.0990623133230648 1.1431529667132934 1.17197433753537 1.1807436630682635 1.1712481761874562 1.1486552479412315 1.117254892475465 1.0793471269650152 1.0381161001738506 1.001080162515989 0.979534183034223 0.9826238674875618 1.0097278950796824 1.04730530537646 1.073860580651569 1.0708546165650221 1.0327615949772668 0.9697464489746933 0.9014855108137046 0.8466145892901359 0.8147027223555812 0.8049927761598487 0.8108905131927491 0.8255757801102075 0.8446652893052538 0.8654619496394613 0.8854793616246869 0.9029086718314752 
1.098196103147996 1.0531363403798197 1.0105197341353063 0.9638983054630845 0.9083709192909757 0.8467485584745572 0.7890086612717262 0.745333672682093 0.718425507289648 0.7015423088075893 0.6841416378383622 0.6608431770338885 0.6366775370790432 0.624481998731691 0.6364488795036889 0.6762492761647254 0.7373842283394599 0.8082881923155962 0.8795327220883455 0.9473932530214013 1.0116481896273621 1.0705047131108605 1.117735284454987 1.1448138907222805 1.1462768008457211 1.1237294709562455 1.085213511868342 1.040731818860488 0.9979115486138834 0.9612659656558323 0.9348452180368076 0.9246291932368692 0.9370332151551872 0.973542559536761 1.0256466391762054 1.0751375240400551 1.1013259384195224 1.0914001444323442 1.0472825460948005 0.9843673478567823 0.9230162769242398 0.8784740121616218 0.8553908827948504 0.8492833577178764 0.8522778372430619 0.8582316751022235 0.8641483623850704 0.8686330530380986 0.8704770951950204 0.869461160785339 
0.969781710212423 0.937901707307516 0.9036773535353056 0.8578953116623821 0.7962220290003722 0.7244640651400844 0.6561010777312115 0.6039085012672876 0.5721679963865292 0.5554358522467349 0.5445799491907193 0.5350927036636457 0.5310998004809055 0.5421440906724296 0.5756127631774247 0.6308888448343299 0.6995249090969207 0.7706884450560298 0.8370917105105545 0.8967903052095724 0.9501578621222507 0.995486410024639 1.0275283148542536 1.0403673213603348 1.032031169761551 1.0067492821749027 0.9729308125918081 0.9387316613096718 0.9090587070694849 0.8862778164438867 0.8732277025235908 0.8747785898086698 0.895385696799621 0.9339619698460401 0.9805399691273617 1.0186444806567607 1.0331471809516062 1.0188418749241563 0.9838069509845639 0.9449619914788038 0.9186229778211187 0.9122045209681011 0.9220422507729218 0.9377179127807981 0.9489340750473447 0.9501054466195289 0.9406256538309977 0.9225132318050759 0.8986462232983369 0.873104109737006 
0.8961477226197098 0.8890462642550362 0.8714663742683714 0.8296536530896237 0.7593767361316157 0.6704298300927549 0.5821566228750843 0.5131873091257335 0.4725695002264978 0.45796727368030804 0.46102373836362764 0.4748495071700194 0.4978110514060299 0.5315662614408144 0.5762134194594353 0.627420081090287 0.6781157707539127 0.7230440417135322 0.7619688562160698 0.7986535784246368 0.8365314159481093 0.8748531090732934 0.9085762905565693 0.9319311568810724 0.9424612820992909 0.942129926691476 0.9348808570872108 0.9232635445147573 0.9074568641624214 0.8876040761802008 0.8670129560268465 0.8525960635224378 0.8511702991275519 0.86408886174189 0.8847596125931109 0.9018730086519542 0.9067711557469827 0.8998390160610181 0.89107590040984 0.8940758372859192 0.9174166668205191 0.9592575775079616 1.008467659698207 1.0509052945710435 1.0762071161093014 1.0809274580648165 1.0672845333806735 1.0400677304351365 1.0048075807224162 0.9680444446622256 
0.8864963465939146 0.8911823219625116 0.8860176255725432 0.8531496575467507 0.7861314020190645 0.6944406644910046 0.5985141234478168 0.5191510497720504 0.46842074621466134 0.4471770439032898 0.4489922319812831 0.4660841593888026 0.4926485377622596 0.5243956989517646 0.5567192115943562 0.5846851801594191 0.605601566820595 0.6218191891408937 0.6406054932233065 0.6702071398104894 0.7145477796021714 0.7704050860404124 0.8290907191791898 0.8811568660060601 0.9204664566672014 0.9449109013851357 0.954209260430279 0.9477401453767722 0.9250116887489994 0.8885148069956121 0.8459644669055992 0.8089113248292503 0.7876354072162132 0.7856847403703134 0.7983363026073551 0.8165967156505106 0.8341007101194845 0.8518398051836984 0.8771226098924885 0.9174780835361676 0.9740103502528068 1.039050478341021 1.099647106591334 1.144167524350505 1.1673519105296681 1.1708627588242682 1.1600501079526662 1.140232049014046 1.1153480676870025 1.0891071433303658 
0.9624645647179821 0.9662665585601268 0.9675405187186087 0.9471294236212349 0.8955474690089331 0.8177896644120523 0.7295467849215421 0.648498516145242 0.5867512847862513 0.548327587071339 0.5312491046306569 0.530862331291736 0.5415691123400779 0.5568907152648884 0.5699051450022444 0.5755924538415629 0.5741568499659161 0.5724981170679742 0.5816972495826007 0.6112990379313343 0.6638636059703358 0.7333416030205963 0.808115535261227 0.8762429080404384 0.9292364045145651 0.9625001719512969 0.9736297691769791 0.9614287546173012 0.927293311555759 0.8777377287630179 0.824992201854054 0.7836539877781572 0.7646155343807658 0.77019236612744 0.7940704876431657 0.8263619640691735 0.8602422023410403 0.8954148732255103 0.936072869891657 0.985236945842838 1.040058878722327 1.0917916120590816 1.1304378381715507 1.150548299840437 1.1539675751331773 1.147857256179167 1.1398863204782341 1.1342511500646502 1.1309975093388143 1.1282324682881613 
1.0719344584239683 1.0789741647827273 1.0908310042556213 1.0900974490578847 1.0654611148118998 1.016195403799468 0.950227443522197 0.8787628793630206 0.8116942235046615 0.7559228239011262 0.7156804858428922 0.692687674633587 0.6852712045081938 0.687713310617289 0.691761662171663 0.690585723192512 0.682984829304687 0.6747172372512513 0.6755256926706438 0.6935458187664174 0.7307501245145827 0.7822476110817354 0.8393128329074993 0.893406693587644 0.9382801587392853 0.9694870694556429 0.9831671472219243 0.9764884372929952 0.9501940530971235 0.9110830764249539 0.8714649934852224 0.8446270248703962 0.8386432637596098 0.8526599689544971 0.8784113057646381 0.9060361061059772 0.9301145249959162 0.951732122675809 0.9754363423721533 1.003800415450657 1.033976097239743 1.0588886197509368 1.0720653758890586 1.0723813923537304 1.0652426889002988 1.059517364249654 1.0625584067272638 1.0766734035467747 1.098905511600145 1.1234773996396625 
1.1292230209134555 1.1420628871624814 1.1653498127055468 1.1866390991119715 1.1957072139298215 1.1875751508928585 1.1619737934708365 1.1215015203470604 1.0706615112837379 1.0159369151723137 0.9653444151241646 0.9262190291379102 0.9019630233343123 0.8901322341514775 0.8837943505172113 0.8757384806898486 0.8628057708525678 0.8473772105877224 0.8351840343117255 0.8313572597812022 0.8377322322418914 0.8530295104018807 0.8749485159797653 0.9017258279903916 0.9315890003914991 0.9609076370324829 0.9834737101475775 0.9926270767400125 0.9853674857298071 0.965389245474281 0.9422052479707191 0.9262654782399958 0.923127337387678 0.9307191216482416 0.9416303026159547 0.9487139139624597 0.9499112253323795 0.9489320442921225 0.9516351212952825 0.9611305127007156 0.9753678442036526 0.9888643259060266 0.997047068042292 0.9998955875203284 1.0023624290152526 1.0115479763725719 1.0327660644249679 1.0669634293234171 1.110575244746269 1.1571970658540884 
1.1680680623476978 1.173071581488455 1.1900251522950442 1.214881806697552 1.2427761486555884 1.2685602463048218 1.2865362900551667 1.2911481708512271 1.2791435564820501 1.251753183696948 1.2147703267854755 1.1758203669409195 1.1404130425691894 1.1095177233244649 1.080317418803057 1.0493496807255287 1.0154926158497735 0.980648529274428 0.9480927313257788 0.9203916094215271 0.8988661820986302 0.8848018158091253 0.8806766631323936 0.8894526089872995 0.9117703827060429 0.943165732877636 0.9740667606087312 0.9935390395615711 0.9948080511867983 0.9788972312996405 0.9537765976626001 0.9295366229023815 0.912908450855493 0.904777782916629 0.9019692595015892 0.9013984769564752 0.9031524745594958 0.910235738934083 0.9255189326771891 0.9485799835501568 0.9750324901518446 0.9988658261858259 1.0160421957299075 1.0268453845859138 1.0356097040092915 1.048348520048922 1.06994010090752 1.1022817472499902 1.1437835653668016 1.1898116992038286 
1.2441202130926137 1.2300613757385106 1.2229784373740165 1.227423760269157 1.2458943794473218 1.2769594096832568 1.314500082196814 1.3494540004859596 1.3734758173743395 1.3822190644428418 1.376076244556002 1.3581365548339681 1.3312113813644144 1.2962785491686217 1.2532494220250425 1.202898080633735 1.1479268110075136 1.0921719561175351 1.0388549807796688 0.9897529265597327 0.9462568896403611 0.9113004289182716 0.889928244713234 0.8871041900975835 0.9037144898512253 0.9336619162942845 0.9647127250615656 0.983310867256602 0.9807128864648589 0.9567397802932475 0.9190307729816167 0.8787037741954165 0.8454955599710235 0.8252458290878297 0.820392784570751 0.8318449624208252 0.8599669813867288 0.9037428809360519 0.9591412622630168 1.0185980850029912 1.0726922066929696 1.113340001729456 1.1366699568514875 1.1440183882716333 1.1408091593388987 1.134272248890628 1.1311741542733125 1.1361307113676251 1.1504871400622405 1.1717817945623077 