# vtk DataFile Version 3.0
vtk output
ASCII
DATASET STRUCTURED_POINTS
DIMENSIONS 99 20 1
SPACING 1 1 1
ORIGIN 0 0 0
POINT_DATA 1980
SCALARS Image float 1
LOOKUP_TABLE default
