# vtk DataFile Version 3.0
vtk output
ASCII
DATASET STRUCTURED_POINTS
DIMENSIONS 40 40 1
SPACING 1 1 1
ORIGIN 0 0 0
POINT_DATA 2500
SCALARS Image float 1
LOOKUP_TABLE default
0.8604690635597114 0.8860707294908522 0.8930374961836548 0.8890808894297895 0.8869074156216675 0.8962678261715814 0.9184621256690504 0.946153265393182 0.9682415969685334 0.9767373279946853 0.9716032630801491 0.9608877021847388 0.9562635455186768 0.9666831482492207 0.9937833161513516 1.0314834119409388 1.0696995577539625 1.099767546386404 1.1183649333961747 1.127836035612063 1.1331004006448078 1.1373623955353067 1.1394357503549757 1.1343578627643423 1.1168498858947218 1.0853984096170823 1.0443652273058088 1.0027608131071233 0.9703575084606414 0.9534082867532909 0.9524166323824552 0.9630933729681829 0.9796719170154092 0.9983583640354434 1.0187241513391614 1.0422700098203639 1.0692967045689594 1.0963972547397307 1.1165671977422154 1.1222726916381203 
0.9006295493715469 0.9522802927854637 0.983475201242946 0.995054195381085 0.9959208389173474 0.9966429628656215 1.0030278876449237 1.013220334048417 1.0197162313083283 1.0148152696841886 0.9961034991169918 0.9686512105407503 0.9426307238670928 0.9277919400443366 0.9280763304057148 0.9395429355787793 0.9528156330790557 0.9586121220854551 0.9531343560120903 0.9402099174724843 0.9289808645365807 0.9285074937580792 0.9423954677195507 0.9664863254279754 0.9908624338488409 1.0049826033985907 1.0030899721136124 0.9870307333112557 0.9651999232253445 0.9484949215137324 0.9456378645683707 0.9602391032017369 0.9906516553021469 1.0319322157386934 1.0781751394171328 1.123706519245904 1.162845444931465 1.1892421513435596 1.1962436814095776 1.1789745316631395 
0.8501508746790557 0.9055722455741715 0.949310662481156 0.9775754634338213 0.9946340748913761 1.0090148046055396 1.027833469504824 1.0526056894863758 1.078889840637729 1.0997235900601043 1.1105115831100596 1.112180982561354 1.110545762464072 1.1122225534480918 1.1196573673836685 1.1284939028034495 1.1292030681353245 1.1123539710897963 1.0746415031747638 1.0221550426103865 0.9687863592807954 0.9303456721657534 0.9173595078589786 0.9302923443341639 0.9596413349272124 0.99075148460988 1.0107596104872782 1.0141298746766678 1.0042273557392418 0.9906220718537669 0.9839947337228491 0.9914395334627245 1.014259525857776 1.0486303425659882 1.0879080468729503 1.1248193893492044 1.152475034578385 1.164444042836513 1.1550245197079598 1.1206739784217672 
0.9301286300842736 0.9506278848262816 0.9681704353466882 0.97882328725522 0.9842569328384865 0.9906098254628296 1.004689331702516 1.0299903559646069 1.065010209295224 1.1047684476840263 1.1443236701971653 1.1817727496053112 1.2185661424417864 1.256776254842828 1.2950853160034512 1.3263486626218652 1.3388832871821204 1.3214696349919972 1.2696930331937368 1.190121916549852 1.0996715130457608 1.0199352242747852 0.9689489560966283 0.9542846723208527 0.9707436678003721 1.0035867703373782 1.0354878780979488 1.053710728602038 1.0542222471624865 1.0413195233714845 1.0237259901708637 1.009680984273766 1.0035560569655475 1.0051888174290347 1.0113906192919666 1.0180339880611537 1.0212911886218834 1.017683476775856 1.0037442146499305 0.9764587457080457 
1.1655020162699241 1.1415575341786197 1.1207385203615492 1.1005219243699256 1.0803735710046194 1.0630128030621897 1.052996460726003 1.053885605375251 1.066097837796666 1.086932274179829 1.1126515211644379 1.1410093952835516 1.172236371106492 1.207517943146577 1.245788960153388 1.2810588118830135 1.3025185279236933 1.2982175826233826 1.2609299718565357 1.1932372118400982 1.1088489250664022 1.0288815633981185 0.9743577215162863 0.9581982601753786 0.9803510717464541 1.0282207699922532 1.0820257207289732 1.1224550072013382 1.1371672781217548 1.1235892495507631 1.08751101589728 1.0389733934201202 0.9878740134591383 0.941252433257754 0.9028298583516471 0.8740089538833286 0.8549786816797694 0.8450171842677439 0.842084636678741 0.8425799112542512 
1.2539393659283098 1.2030728053423294 1.1658039488984326 1.1395228124948784 1.119913716197395 1.1044935025312088 1.0936539405170445 1.089164059059551 1.0917012009831413 1.0994110599750213 1.1085751579578074 1.1158691118085984 1.120504025372227 1.1245474779252818 1.1309314697733877 1.1402995130940554 1.1488480100245417 1.148971211266209 1.132939157928714 1.097917681140654 1.0495339492668325 1.0016305390776297 0.9716923419878093 0.9737133827002781 1.011749410495816 1.0772475929770822 1.1515101341810898 1.2122377049555304 1.2412587410202671 1.2301885001703154 1.181968536790412 1.1082829626901471 1.0246266653646254 0.9454553431010086 0.8812119151588971 0.8376464723534701 0.8166071510761099 0.8170504897520333 0.8354986601744869 0.8660809904178103 
1.0337909144283763 0.9787069387422375 0.9493227085348951 0.9411590258602851 0.9459574482427507 0.9569919294470416 0.9719004373574794 0.9918849851505386 1.0183961085630617 1.0498352861761115 1.0805948543507284 1.1031231890705624 1.1117045117925746 1.1055184127782876 1.0889763596911533 1.0690417546187962 1.0511634323838166 1.0363907825179648 1.0215850098437096 1.002753769917975 0.9795344592862192 0.9579529162230063 0.9493801278166423 0.9657020492701981 1.0129379955086568 1.0866209751848486 1.1715478038176226 1.2463737183198833 1.2911134084034446 1.2942056032530944 1.2561109708167835 1.1882012718720998 1.1079429109502037 1.032887606277674 0.9760592674776555 0.9441164396505466 0.9380115683244185 0.954749846167739 0.9888215196445249 1.0327683677856765 
0.8085076843613551 0.7847618798692173 0.7835342268579947 0.7969310453036282 0.8150131722284988 0.8316150840976047 0.8473418746698881 0.8681021189534067 0.9001565570436906 0.94469571981525 0.9952303706567568 1.0394397473351211 1.0645379015823324 1.0631966257041934 1.0367734160434108 0.9941815343056394 0.9472528183622094 0.9053976344547765 0.8726229748688334 0.8484072624489217 0.831505972051839 0.8239371745445003 0.832267230224062 0.8649677407173468 0.9270700586139856 1.0151474314108015 1.115728750134176 1.2085201236711418 1.2732509907300282 1.297010074446836 1.2786687269108898 1.228510698613675 1.1636033922853208 1.101407362549359 1.0546114651558005 1.0290757272145559 1.0248450103641393 1.0386391323133592 1.0658811610214085 1.1012402368198058 
0.8856102376217468 0.9198052457682206 0.9539579730039914 0.9767335572919522 0.9798568305933733 0.9629875425946339 0.9351603507227265 0.9114319969298689 0.9059687071979334 0.9249122388270331 0.9627328126586868 1.004110601366048 1.030544739177663 1.028425743313943 0.9945920160467756 0.9368158300205277 0.8694144851465747 0.806704564471738 0.7579135949704338 0.7259924269616883 0.7102874348744552 0.7107260820778311 0.730390505584459 0.7745207837822289 0.8463632058039555 0.9424146216670208 1.0502227392941998 1.1506076233211724 1.2237185593641455 1.2561524418150811 1.245690596072274 1.2014268100226233 1.1394447738710038 1.0764008521681618 1.0241786701163194 0.9878455597886361 0.9671070660634918 0.9595594294295945 0.9633539597746961 0.977702654699859 
1.0922368895254362 1.1577386550765043 1.2033241633374434 1.2173432293046633 1.1956018203064995 1.1445095870042832 1.080459288961702 1.024792706619543 0.9959080509206131 1.0017978459752652 1.0365151745476162 1.0824568913394588 1.1176386003617025 1.124701469088257 1.0975407165204216 1.0426677759612422 0.9750839935323788 0.9111357387111252 0.8621128500040163 0.8316018937285928 0.8173048383948807 0.8155172233279833 0.8251390910642186 0.8486559584345493 0.8895690959369406 0.9480317967920827 1.0176173407227587 1.0855375267937482 1.1366280021944548 1.1592038199684516 1.1497542847450575 1.1140342944085209 1.0640612529659896 1.0127096419884754 0.968773344940094 0.9349116343262055 0.9091318224989543 0.888447618327647 0.8722459941042251 0.8632858975850625 
1.132486110488748 1.176729300685703 1.2010462140766673 1.1972809314606092 1.1653808864386401 1.1147273558868616 1.0621683450022479 1.0268156455517388 1.0231693838431881 1.0552307503910343 1.1142609045048162 1.1815260218037258 1.235215660684823 1.2587402867971842 1.2468351610520991 1.206808564435074 1.1545024552681924 1.10700145968043 1.075587373841592 1.0621479369676452 1.0603782725770008 1.0606589782976061 1.0557476167429218 1.0442653444325813 1.0304028467745243 1.0204514650822216 1.018459054563512 1.0236091628596988 1.0307358878199024 1.0334643702625437 1.0279453050048692 1.0148949930506892 0.9987630225664936 0.9846306583723611 0.9748220339011447 0.9673728517714674 0.9573631003948936 0.9403663275691334 0.9159430871487336 0.8890001366115357 
1.0765304807004967 1.084623397800097 1.080431858728104 1.0606096282951651 1.0285564551774438 0.9939427481330395 0.969911765466659 0.9686660927900137 0.9968069723489751 1.0521287330940163 1.1233190129366495 1.1930957644412343 1.2439604260412507 1.264504564655423 1.2537029270974713 1.2212387909879538 1.1835034672907443 1.1568255700445969 1.1508056280340901 1.1646619126584348 1.188147431559575 1.2064910708925343 1.2069781616239705 1.184132416642484 1.141302432669697 1.0883238055611475 1.0368263724893692 0.9957036568785093 0.9688251521585658 0.9555909820859133 0.9533013902741304 0.9594715284894249 0.9725931160343709 0.9911200909772296 1.011792820753954 1.0289552308293115 1.035908125716387 1.027950539547984 1.0054632650806168 0.9750334485690737 
1.1106488658169185 1.1031889722340655 1.0813070380469112 1.0455748730093628 1.003290236342254 0.9663308535682424 0.9472280026951676 0.9548449197376871 0.9910885638333566 1.0497358679620201 1.1178461068873333 1.1794753848765107 1.2206453901152248 1.233957583531434 1.2211474054252056 1.1924244508569988 1.162582293235093 1.145201458612155 1.1472146306174928 1.1661294067074461 1.1911702948795768 1.2079009539636925 1.204307126510133 1.175655138141403 1.1260579322126887 1.066289959169879 1.0091713367649455 0.9648704260873943 0.9382418993692831 0.929011643871631 0.9340180601963547 0.9497397683748886 0.9735068348426329 1.0029330311261866 1.034460811374891 1.0625986662525766 1.080995039097151 1.0851908313263876 1.075550348673698 1.0583835273483841 
1.1637489848035223 1.1583271910607382 1.130764308444526 1.0830852004205487 1.025593951977617 0.9739832825678115 0.9442754957948664 0.9475186520764373 0.9861145200875369 1.0529677411137275 1.1336507786632648 1.2108145823019432 1.2693913258497922 1.3008887000032003 1.3053408755863454 1.2902358629982178 1.2668073384863439 1.2451142556375312 1.2298990037989261 1.2189845515868605 1.20492955042972 1.1792012412938413 1.1369204240833528 1.0799083905292446 1.016553286878875 0.95857118386205 0.916284944543364 0.8947633513142267 0.892653601809081 0.9040674024834289 0.922252217322286 0.9429015663181545 0.9653184257996491 0.9910196002182688 1.0209398896674025 1.0532260453240732 1.083199544918151 1.1056548668591373 1.1181001984435022 1.1228057792855108 
1.0911064168977278 1.0919175990837904 1.0710026041526817 1.0284130727146157 0.9732877799957346 0.9217061906130272 0.8915108978624662 0.8961639725667685 0.940025427875484 1.0167986550574217 1.1116183007919398 1.2058906837847432 1.2830376302596407 1.3330553664538312 1.3543321644800201 1.3522638949451933 1.3354634431540524 1.311301260182712 1.2827504846112037 1.2479040394387266 1.202296344066156 1.1428208016247066 1.0712137876545387 0.9952137110164139 0.9265990071172054 0.8768712586874813 0.8526053578458214 0.8527662999437268 0.869392505503894 0.8913846702337911 0.9095626934766278 0.9204987116258347 0.9272715394668211 0.9368972501519142 0.9559173539023261 0.9865398966678758 1.0253395466246107 1.0650586471830965 1.0983360162299682 1.121180966670309 
0.9288423412818769 0.9294404262485345 0.9198931417896891 0.8970376497616421 0.8655306601937446 0.8371515898465399 0.826485455340042 0.8448976339506566 0.8955023233262175 0.9713568544227951 1.0576540504846326 1.13693143153127 1.1950558251893417 1.2255028392441614 1.230291734808159 1.2174494214184248 1.1963826626070553 1.1733806226756403 1.149297506145706 1.1203715876070852 1.0816228646432542 1.0310289788191194 0.9722877714332876 0.9146356416209128 0.8696169997665009 0.8462289514461383 0.8467556789653405 0.8653941650934457 0.8905123945713596 0.9096496978531755 0.9150037702046445 0.9068397053785474 0.8931898181221962 0.885958458598027 0.8952545589680293 0.9246018600333371 0.969214964752649 1.018021146019597 1.0583220967037663 1.0808207817455058 
0.806676906977815 0.7998118581326625 0.7976307490663974 0.7960872231689976 0.7966065318107459 0.8062070296960329 0.8339434302251927 0.8854700318010503 0.9585761749044196 1.0421259698682543 1.1191737855745387 1.172976309716264 1.193202024081078 1.1795320015712538 1.1410765843843014 1.0919822695382835 1.0453322485441565 1.0081489151400977 0.979690097101062 0.9536189486206854 0.9227950723815229 0.8842342320093228 0.8417566974942361 0.8049828523944582 0.785099894645989 0.7893948292300788 0.8171965383838833 0.8592829657563527 0.9012401427534616 0.9294152027197958 0.9368348952109 0.9263700112123497 0.9095908184837305 0.9016749568997415 0.9145300885127866 0.9511444383000032 1.0036713449603707 1.0561105971187499 1.0904259029292032 1.0934690514927743 
0.7998617641586946 0.7958416189494965 0.8043637690858333 0.8230069079685827 0.8530163993154618 0.899261372945252 0.9668583095742017 1.0562687898930236 1.159716932410079 1.261257204468373 1.3410180304125463 1.3819943802098695 1.3763785495741252 1.3285097672932493 1.2530415516139843 1.1691164359440744 1.0931392362770118 1.0333115609394525 0.9882018061840033 0.9497333282633482 0.9089739778315721 0.8619055283437859 0.8124499678349143 0.7713449990029364 0.75138180763897 0.7611915634097765 0.8004660035433301 0.8589183809132023 0.9196736447624246 0.965804977764476 0.9872590974005471 0.9851014447825269 0.9710538591607824 0.9622953452561079 0.9736068350504566 1.010219369115569 1.0645516183322645 1.1184100612795564 1.149854569543523 1.141869102330018 
0.8737270576157923 0.8858730635497956 0.908283996226237 0.9406834322898733 0.9854476914280887 1.0469415718262685 1.1282289407230017 1.226934241007275 1.3327928939195703 1.428760270895355 1.4957850274777993 1.5194232255180347 1.4953895579016656 1.4314752443090226 1.3448467331869192 1.2557981363511566 1.1805841559438517 1.1263103484151147 1.08989381112645 1.0613130383595437 1.0295526457892659 0.9885790285407309 0.9407585922115184 0.8962672838261851 0.8687462808290932 0.8690469846839834 0.8997548709117507 0.9529426486159057 1.0123383676604618 1.059263623361208 1.0800208030030407 1.0716100065747622 1.0431617736573693 1.012180846912352 0.9969516821885476 1.0082727434877568 1.0441786477714394 1.0901377820215155 1.124815811751998 1.1289470826132484 
0.915978571039298 0.9296975599215166 0.947420429152786 0.9711204305602381 1.0046621374353837 1.0523914192909998 1.1160506114602202 1.1917111137176821 1.2687334175406932 1.331905804016296 1.3663123091258278 1.3629916712763057 1.3228695918654814 1.2570919902015114 1.1834410696048532 1.1202223298681298 1.0800745386117057 1.0661299339842039 1.0719167804776393 1.0848589968198166 1.0918486763264483 1.0846637567329718 1.0631707511111066 1.0351548492633886 1.0128963232937482 1.007823201215893 1.0253186277280055 1.061782540483804 1.1052814818395849 1.1397669523854348 1.1513571259074546 1.1341584929001534 1.0930681843723127 1.0421063755566744 0.9987250602931914 0.9764212620945845 0.978931525762943 0.9987314369960774 1.0206426488561195 1.028917335210782 
0.9042387006754556 0.8978822683240305 0.8888391445983689 0.8812284735353336 0.8811939180538315 0.8947568391667596 0.9245705523211357 0.9673023936641866 1.0133463073807727 1.0495381477521857 1.0640261756115854 1.0512500043318833 1.0147556636475445 0.9664639037936382 0.9225763001628855 0.8977800400652125 0.9001052906377369 0.9284247016542498 0.9734052563514795 1.021315532789889 1.0590686216906962 1.078597107476182 1.0791012881463216 1.0665963475075397 1.051131446426494 1.0427659827155271 1.0477136650951882 1.0659710250826528 1.0912700844122005 1.1134294149899544 1.1223065660735494 1.1118636581905479 1.0826681468962103 1.0416618376567932 0.9991530194236169 0.9642860055259768 0.9410893124992297 0.9270833347380488 0.9152629316280999 0.8985487402800858 
0.9515876724426504 0.9345726626064883 0.905312557161589 0.8680605371257776 0.8309621768919139 0.803779537859683 0.7940792388434227 0.8037228547749383 0.8275794948053338 0.8553904629655726 0.8761435887983602 0.8829909578142227 0.8763852776271285 0.8639248695510308 0.8569709485173762 0.8656257214113586 0.8943726719263727 0.9402628651883742 0.9942548133571301 1.0448646434801572 1.082370211322932 1.1018088589732966 1.1037908280638726 1.0932270325144198 1.0768863633718877 1.0609333575229356 1.049288133519636 1.0430944323605746 1.0411130060902432 1.040651108281494 1.0386562243323816 1.0326917521649615 1.021564963993483 1.0054140305945753 0.9851869026463728 0.9617163297232884 0.9349106127539294 0.9037026620708871 0.8671220880893761 0.8261924334658636 
1.08477395298056 1.0787492253820599 1.0543996403106073 1.0125298083679213 0.9598122167823017 0.9078156376865848 0.8692476954331309 0.8530967178905817 0.8610873098744697 0.8872933655698583 0.9211591377654103 0.9524207937770195 0.9754592309249926 0.9909744156007994 1.0043427619094107 1.0217784926640756 1.0464987844540246 1.0769250377914588 1.1076873763042614 1.1325965511737377 1.1477266108750865 1.1528595631245073 1.150651018574289 1.1442796586986415 1.135198805166668 1.1224337010256207 1.1038167694928247 1.0782986612830787 1.0477863646201997 1.0172419586468693 0.9928287184722777 0.9790597281918192 0.976489046800441 0.9811690293237308 0.9861164124152149 0.9839997709365971 0.9697744095116431 0.9422518082322635 0.9043188559523685 0.8621775093094165 
1.1724735331232758 1.1766877181686701 1.1726245852440793 1.1545059382930272 1.1218697359411398 1.081446025523811 1.045022186537 1.0243219040976896 1.025588798202162 1.046743956665428 1.078577701761379 1.109242058598653 1.129575481582612 1.1364823693399044 1.1328390420451515 1.1244349868915084 1.1160739546353167 1.1092254160428987 1.1024330001588054 1.0938290908059742 1.0837454113299176 1.075396161418412 1.072946015661402 1.0781129663188882 1.0876167323639696 1.093485819973718 1.0865919610501507 1.0617492878017019 1.0215381732203381 0.9764612091010061 0.9409310646778902 0.9268797836783403 0.9381585172867555 0.968565468960181 1.0044761247781615 1.0307020276790713 1.036670936970621 1.0200941757585844 0.9868126180935657 0.9475266188642105 
1.13976075034582 1.1409489865612032 1.1563737217586398 1.1726081085349396 1.178612250690433 1.171093108158204 1.1552096733146513 1.1405814809775752 1.1350994513690997 1.1401159717496028 1.1496416535373006 1.1537934472696545 1.1443219184978801 1.1189791152459687 1.082337845515562 1.0428683342472045 1.0082720699501984 0.9819570368451305 0.962628057851897 0.9468787627671359 0.9327389640623958 0.921573205614481 0.9168960460855661 0.9208280569531934 0.9306805672734882 0.938354543749313 0.9336489870087002 0.9100977394683407 0.8700956690458305 0.8260412400012372 0.7961697162389343 0.7966525087682813 0.8337536077793936 0.9000615608361139 0.9768598716246595 1.0416014387656372 1.0769014699356427 1.076827687380319 1.0478258195335655 1.004431233076554 
1.0535479972974928 1.0478472199209707 1.0730071687774156 1.1101424431882778 1.139699582208721 1.149613930625628 1.138904254619066 1.1154287190132104 1.0896122659931833 1.0679315405892034 1.0497660976871899 1.0290687649476782 0.9994544782372166 0.9593975515428336 0.9143196642786575 0.8743203046825395 0.8489374510131572 0.842060511346728 0.8499514363252106 0.8634136833589787 0.8726720305715757 0.8719913162139826 0.8613770518041778 0.8446368282659702 0.8254193552336216 0.8041244687663555 0.7779811749149071 0.7444670247910335 0.7058971672188791 0.6719287094499974 0.6576608315307387 0.67750899674868 0.7376664800870126 0.8311665797459138 0.9385366458409178 1.0342697866571084 1.096324413912121 1.1142551631362814 1.0922615291269768 1.046019286880418 
1.0142320136966894 1.0083305730246428 1.0344204378778934 1.0734192577444475 1.1033080548467367 1.1083084515612138 1.084581038120659 1.0399719638627796 0.9883973562026684 0.9421486914132949 0.9062851819137706 0.8778994405502507 0.8501972908049772 0.8186257727390457 0.7852244472919357 0.7585274737990993 0.7490119237198595 0.7627221414191995 0.7967901672691784 0.8395116634731713 0.87506175695708 0.8903442249664825 0.8803448666449283 0.8493163831287138 0.8075523840827433 0.7659626392852427 0.7317089108807618 0.7072303575336266 0.6926971224596131 0.6897050476550445 0.703235880426715 0.7400492979980698 0.8040590579983207 0.891414568977399 0.9885987047061086 1.075421561083953 1.1321000754690504 1.1471997057075742 1.1224912511170442 1.0722073542239445 
1.0765966051400002 1.0810203852005404 1.107933767566502 1.143804106584073 1.170157145896721 1.1714880989701295 1.1419300860761048 1.0873548968545934 1.0218582212219744 0.9605164943623646 0.912289789808905 0.8768423743475562 0.8468587665881929 0.8143356828845724 0.7770647730173937 0.7413920677402731 0.719459888289198 0.7223321098974633 0.7528613897333213 0.8024549052493596 0.8538252487643344 0.888518575924004 0.8953470402714653 0.8753251091753711 0.840615943097759 0.8082478113072724 0.7921175138794411 0.7975194973871514 0.8207749950068778 0.8535102382785573 0.8885340234416403 0.9235890672924753 0.9608311741337283 1.0027145010088754 1.0472926763380406 1.086363691856803 1.1081370070264192 1.1032454002437264 1.0707000024321105 1.020165291040254 
1.17119470737107 1.1888226395067538 1.2191346090753306 1.2571126011995881 1.29105641440665 1.3073121706173367 1.2965848810470408 1.2584067685143387 1.2011548756118913 1.1374666201679635 1.0776024885562352 1.024622725198265 0.9742973247051 0.9199019106706402 0.8590423494879984 0.7982084959129896 0.7518447222009373 0.735834562498385 0.7586848041085449 0.8153626517258359 0.8876106602456513 0.9511545352903655 0.9863956145567436 0.9871152611650145 0.9626374022630999 0.9323450008243273 0.9155257546481793 0.9219563220217252 0.9480735205344833 0.9803761035470163 1.0036969618495997 1.0094533826541463 0.9993089862190059 0.9825819689385147 0.9694500632118722 0.9643472289472016 0.9635945178348067 0.958553376300003 0.9421451396041726 0.9145315615635635 
1.1342134083669944 1.1539085328268404 1.1841391011476112 1.2273293173981314 1.2786209944465123 1.3266178878860622 1.3579962336072406 1.3634097399555625 1.3412536604903411 1.2971430948096598 1.239636191326979 1.175119091476052 1.1053214331283003 1.0292189479786418 0.9481050606224795 0.8702391369414297 0.811293477914292 0.7891236115254753 0.8149265234144866 0.8855145883681758 0.9814910944028872 1.0733017196334038 1.1328964994498367 1.1454454543811186 1.1151597800558077 1.0621445446738966 1.0118575666858733 0.9826309954397289 0.9776673731105424 0.9854103175429495 0.9876119389785466 0.9703265725730255 0.9317066993619083 0.8825421553833466 0.8397098853589307 0.8166419831168884 0.8163601874605216 0.8308458447396315 0.8466664237227216 0.8531687737584353 
0.963388857568793 0.9776946645101084 1.0029093085905387 1.0455415086474562 1.1067473371359924 1.179250087392676 1.2489447700023368 1.300330572916931 1.3226357194561644 1.3132142003069465 1.2766302565819045 1.2205986565396572 1.1518432164779377 1.0747525695808946 0.9935651467441952 0.9161023685669633 0.85560693864291 0.8281138675132075 0.8456035050754146 0.9082770338311283 1.0006626456126713 1.094832315543381 1.160359830821366 1.176760597703875 1.1423006704160188 1.0744816300630502 1.0016090306241678 0.949477879768661 0.9298166127762747 0.9362340947795664 0.9494494843928244 0.9486986603119195 0.9230681870350302 0.8767986935536666 0.8260962550027631 0.7896920124227581 0.7786696377334974 0.7911714225556133 0.8145683441427505 0.8333607513555947 
0.8591556211124851 0.8792286046961096 0.8990161278809029 0.9257916773089426 0.9670040751527533 1.0239659023161085 1.0892600814897264 1.1493014837803042 1.1903838326644425 1.2045969588576728 1.1923256191556364 1.1603304736196978 1.1171659699664311 1.069169426286206 1.0195636312963157 0.9708497351280587 0.9282031339347411 0.9006804984793273 0.8983823382344983 0.9265298919741639 0.9799304012193703 1.0418126397129104 1.0889630097450702 1.1015056753683954 1.072615631906908 1.0128429246228163 0.9461477943252289 0.8990339849150709 0.8879914694243912 0.9116312804818154 0.9516373453602281 0.9821056708278333 0.9824421390235404 0.9471591281544861 0.8876598255698814 0.8254565442776016 0.7808210767850446 0.763111694492867 0.7677831561464278 0.7811517986867896 
0.8917885288292106 0.931718114227956 0.9517396462327912 0.9559815479285911 0.9565385886655874 0.9653217486654636 0.9870643149875462 1.0172875709195524 1.0458805843645829 1.0636426490842963 1.0676140997019665 1.0620848098148574 1.0550472474097448 1.052715809177423 1.0558052135775724 1.0599359940262958 1.0597096421849854 1.053501394872361 1.045475816687789 1.0431280736758026 1.0516850705894663 1.069028285988309 1.0848572432026125 1.0854065611658776 1.0615244471450458 1.0154594979362215 0.9619168648750318 0.9219202795833553 0.9121583311524444 0.9354030386393937 0.9774620997743241 1.0128542783032715 1.0167030410905162 0.9768428510098756 0.8998439968065469 0.8078246868081417 0.727818323356939 0.6793826558480102 0.6669001555820366 0.6802351476266192 
0.9249898317397027 0.9867461171001467 1.0216806659505133 1.0253029956061064 1.0073708008266615 0.9845625243058338 0.9708631049243464 0.9710925704504861 0.9807129548513358 0.9911590134975936 0.9967884138869358 0.9989338035847062 1.0046842878284474 1.0214969757030583 1.0513642132629148 1.0884494440368404 1.121803608121184 1.1414751034413553 1.1441226559275206 1.1345265241520757 1.1219989413402263 1.1139845994973308 1.1110260708684816 1.1065052994871762 1.0915632136370128 1.0621817401402796 1.023750229944878 0.9896832536644551 0.9741936302327111 0.9830809184623565 1.0080562296937232 1.0285364800132082 1.0207636134934117 0.9698269389863317 0.8781998403556796 0.7659936972128777 0.662493091935538 0.5932511470397845 0.5694232255180347 0.5847254321081929 
0.9031737786370775 0.9832889702050626 1.0468784902447696 1.0778476397806176 1.0765802738672505 1.0560571453381566 1.0325425589213009 1.016476330988477 1.008476004099891 1.0019511958938105 0.989862359898274 0.9709419812496969 0.9514214812461768 0.9413711397615453 0.9482011354087265 0.9715833703969152 1.0030544968235877 1.030553088156443 1.0450441859487805 1.0451233853059319 1.0368282274286829 1.0289487547497576 1.0269791143145695 1.0296842045352648 1.030531069162829 1.0230265650666999 1.0063410777975705 0.9872132336287244 0.9763607243213669 0.9811627541862818 0.9990447683242374 1.016047394006105 1.0122991559418313 0.9720589722471902 0.8930342688487705 0.7896510819535681 0.6880211692241148 0.6148601225532133 0.5860033998163214 0.6004690635435912 
0.8906175297124991 0.9808592410479353 1.0633704804328077 1.1146405796716938 1.1266746283469748 1.1071311735570855 1.0722257383247158 1.0368891886050466 1.0076608439644499 0.9817476126304764 0.9519070956554626 0.9135337933084603 0.8693705119870551 0.8290377261889025 0.8038826456139219 0.8004705743951156 0.8167302443919143 0.8430138158261866 0.8672988623478773 0.8813228945368455 0.8840485648344251 0.8806662729786344 0.8781591748613194 0.880507800259679 0.8866422013048046 0.8922911398164356 0.8942143252445093 0.8936596082500609 0.896343238453854 0.9085576770843727 0.9317233586143335 0.9590636242900201 0.9771277754120039 0.9720696855432587 0.937557425808654 0.8798156978490986 0.8165436967137688 0.769724523224668 0.7558168032269917 0.7784620307290108 
0.899582683206901 0.9763911298796897 1.0434049273605832 1.078023569641074 1.0708297787375574 1.0283834081047307 0.9686076162339966 0.911417206529712 0.8695587160364847 0.8442539434889086 0.8274307847664963 0.808689471533086 0.7827097957402387 0.7528555936840432 0.7291424008022132 0.7220496592598769 0.7359708844436955 0.7661382611895063 0.8007100856805492 0.8266977457900343 0.836299321763388 0.8301659504971487 0.8160694531169003 0.8041303101542736 0.8015930350347885 0.8100826007818663 0.8264954183214043 0.8463579580908948 0.8670842126036998 0.8889073886640387 0.9130534894722171 0.9387518066787859 0.961589414363551 0.9748856269465085 0.9736904132941555 0.9590296776589204 0.9394610113504266 0.9283453448689803 0.9377691585202078 0.9722551330190653 
0.9231004483812683 0.9568464245620899 0.9778854214479832 0.9701504220961508 0.9273095582750125 0.8567045201970853 0.7770699714757815 0.7107452160654192 0.6740555283050452 0.6706491653769314 0.691126027728299 0.7190078883860468 0.73975588811685 0.7479835034316186 0.7491077781357086 0.7548137247659233 0.7751231228564317 0.811659144562166 0.8559089829042285 0.8934012383419144 0.9113924949526127 0.9057636534692681 0.8833733688557376 0.8587131800801724 0.8468294465248828 0.856363881314986 0.8862379375088435 0.9272877881983873 0.9674191402798766 0.9971721602175082 1.0128220624343043 1.0159677586808213 1.0107434171501408 1.000975353173966 0.9891640287781386 0.9775318825332399 0.9697212772693588 0.9711948828172683 0.9873464124313697 1.0201239738782983 
0.9707911175001115 0.9579512520654935 0.9353040983298194 0.8947111937270787 0.833049005101392 0.7561651867023401 0.6789165597529822 0.6203395165074338 0.5957828765744025 0.6098698355532717 0.654128184586533 0.7108684426121664 0.7615587955881988 0.7954103573106314 0.8136431673099347 0.8271825554776724 0.8491216591541966 0.8861828092132874 0.9339757395636283 0.9787433711953001 1.0046743914523644 1.0027640951594758 0.9763432906530838 0.9402247496025985 0.9138856424459886 0.9122724574026525 0.9389628526867722 0.9850028084371707 1.0336474778967157 1.068232924152809 1.0790986908567808 1.0664273653934053 1.0383374556483547 1.006050249593958 0.979083384204846 0.962754864448849 0.9584583373438079 0.9654493244389581 0.982309096693381 1.0070336391766204 